8
Lattice="5.443702372939453 0.0 0.0 -3e-16 5.443702372939453 0.0 3e-16 3e-16 5.443702372939453" Properties=species:S:1:pos:R:3:forces:R:3 coverage_query_structure=Si coverage_query_source=/share/home/wuyb/hj_test/test/workspace/stru/Si.vasp coverage_query_source_frame=0 energy=-43.38916841961125 pbc="T T T"
Si       4.08277678       4.08277678       1.36092559      -0.00000000      -0.00000000       0.00000000
Si       0.00000000       2.72185119       2.72185119       0.00000000       0.00000000       0.00000000
Si       4.08277678       1.36092559       4.08277678      -0.00000000      -0.00000000      -0.00000000
Si       0.00000000       0.00000000       0.00000000       0.00000000       0.00000000       0.00000000
Si       1.36092559       4.08277678       4.08277678      -0.00000000      -0.00000000      -0.00000000
Si       2.72185119       2.72185119       0.00000000       0.00000000       0.00000000       0.00000000
Si       1.36092559       1.36092559       1.36092559      -0.00000000       0.00000000      -0.00000000
Si       2.72185119       0.00000000       2.72185119       0.00000000      -0.00000000       0.00000000
8
Lattice="5.495731322344337 0.0 0.0 -3.029277447499795e-16 5.496828276415541 0.0 3.0288817213938743e-16 3.0288817213938743e-16 5.496110204701594" Properties=species:S:1:pos:R:3:forces:R:3 coverage_query_structure=Si coverage_query_source=/share/home/wuyb/hj_test/test/workspace/stru/Si.vasp coverage_query_source_frame=0 energy=-43.17285676255432 pbc="T T T"
Si       4.12008250       4.13366766       1.38729799      -0.28153220      -0.67862602      -0.59009646
Si      -0.05822686       2.69805825       2.70023272       0.25719824       0.17788082       0.70883467
Si       4.10394601       1.25529833       4.07942179      -0.12051524       1.14314908       0.65943099
Si       0.00381109      -0.05071574       0.00164274      -0.24592336       0.11127457      -0.34605582
Si       1.36638186       4.17797798       4.05472494      -0.31455725      -1.21270447       0.27352494
Si       2.70457955       2.76877482      -0.01796832       0.19243966      -0.49867838      -0.19476086
Si       1.30342595       1.32219825       1.36941068       0.67844649       0.65240610      -0.35238342
Si       2.73507808      -0.02727833       2.70393675      -0.16555634       0.30529831      -0.15849404
8
Lattice="5.44671489838845 0.0 0.0 -3.0027528295206234e-16 5.448697567804034 0.0 3.002476796033733e-16 3.002476796033733e-16 5.448196686421489" Properties=species:S:1:pos:R:3:forces:R:3 coverage_query_structure=Si coverage_query_source=/share/home/wuyb/hj_test/test/workspace/stru/Si.vasp coverage_query_source_frame=0 energy=-43.175860650016276 pbc="T T T"
Si       4.07329959       4.16902610       1.35776125      -0.10995160      -1.10529736      -0.18351725
Si       0.06338945       2.79715038       2.66647147      -0.37743266      -0.60899820      -0.17335443
Si       4.12658160       1.38041179       3.99243585      -0.44787241       0.50476085       0.30908019
Si      -0.06007589       0.03202905      -0.01538878       0.34727395       0.19082399      -0.15317900
Si       1.30236532       4.09196201       4.12619644       0.74609370      -0.42266104       0.50964352
Si       2.74024561       2.67051653       0.04576398      -0.09646594       0.15225883      -0.42383685
Si       1.38415509       1.23941661       1.40608565      -0.36187682       1.19863859      -0.60104345
Si       2.69813383      -0.05440055       2.74728695       0.30023177       0.09047433       0.71620728
8
Lattice="5.497647348438434 0.0 0.0 -3.030122629846846e-16 5.498361916798279 0.0 3.031333089549483e-16 3.031333089549483e-16 5.500558377583461" Properties=species:S:1:pos:R:3:forces:R:3 coverage_query_structure=Si coverage_query_source=/share/home/wuyb/hj_test/test/workspace/stru/Si.vasp coverage_query_source_frame=0 energy=-43.21873458895587 pbc="T T T"
Si       4.12299522       4.02780920       1.35572811       0.00387940       0.52566361       0.24582160
Si      -0.07470436       2.65537412       2.82677163      -0.09073654       0.16141342      -0.43923174
Si       4.05675375       1.29861408       4.22745655       0.27511974      -0.48814498      -0.67116726
Si       0.04194231      -0.09019707      -0.00623083      -0.24885727       0.15460368       0.06444149
Si       1.36590838       4.10426826       3.99798443       0.15601270       0.34526319       0.16607485
Si       2.71390841       2.76685283      -0.06790675      -0.13642511       0.27803792       0.15372615
Si       1.31278824       1.46986856       1.29880695       0.06176973      -0.81064106       0.40438959
Si       2.73757020       0.04385759       2.64164102      -0.02076264      -0.16619577       0.07594531
8
Lattice="5.459510766105667 0.0 0.0 -3.010423357980155e-16 5.462616259129646 0.0 3.01150667054305e-16 3.01150667054305e-16 5.464582002852724" Properties=species:S:1:pos:R:3:forces:R:3 coverage_query_structure=Si coverage_query_source=/share/home/wuyb/hj_test/test/workspace/stru/Si.vasp coverage_query_source_frame=0 energy=-42.82267415410706 pbc="T T T"
Si       4.03856721       4.02244672       1.28851247       0.27653151       1.66511922       0.62529406
Si       0.04756252       2.75909970       2.59988034       0.22674078       0.52610304       0.57372327
Si       4.10097885       1.52448358       3.98651955       0.19182970      -1.23627758      -0.07612715
Si      -0.06178534       0.10391589      -0.06867650      -0.04519010      -0.74479994       0.43871917
Si       1.35595645       3.97736200       4.27188881      -1.11456141       1.38521139      -1.51102526
Si       2.72182872       2.65281080      -0.01582446       0.42498910      -0.26862081       0.56394578
Si       1.38779630       1.34744292       1.34466679       0.12935644      -1.29137013       0.64826492
Si       2.72439401      -0.07536838       2.90326050      -0.08969602      -0.03536519      -1.26279479
8
Lattice="5.488034757593933 0.0 0.0 -3.025920194870141e-16 5.490736315046679 0.0 3.0264118259662235e-16 3.0264118259662235e-16 5.491628412834771" Properties=species:S:1:pos:R:3:forces:R:3 coverage_query_structure=Si coverage_query_source=/share/home/wuyb/hj_test/test/workspace/stru/Si.vasp coverage_query_source_frame=0 energy=-43.15801119100358 pbc="T T T"
Si       4.12256630       4.04496013       1.37455713       0.24579859       0.26481800       0.28306759
Si      -0.07290883       2.64554698       2.87954613      -0.11460814       0.10926259      -1.13613465
Si       4.02967660       1.29078044       4.21342578       0.42324452      -0.60002660      -0.40877410
Si       0.04322612      -0.10143695      -0.01847974      -0.20853966       0.33868428       0.14883597
Si       1.36010110       4.09256050       3.97891278       0.58623174       0.50550056       0.42109876
Si       2.74206893       2.76892741      -0.04866953      -0.43023123       0.44962233       0.00998302
Si       1.32533198       1.47335823       1.29320423      -0.30747176      -0.65943109       0.39605421
Si       2.73671253       0.06937644       2.61068431      -0.19442405      -0.40843006       0.28586920
8
Lattice="5.468089967965131 0.0 0.0 -3.01352089048414e-16 5.468236940810396 0.0 3.0140609461353873e-16 3.0140609461353873e-16 5.469216908220426" Properties=species:S:1:pos:R:3:forces:R:3 coverage_query_structure=Si coverage_query_source=/share/home/wuyb/hj_test/test/workspace/stru/Si.vasp coverage_query_source_frame=0 energy=-43.15232929945999 pbc="T T T"
Si       4.08183784       4.17045872       1.37083637      -0.26232057      -1.09757341      -0.67274351
Si       0.02985052       2.78953388       2.63954515      -0.03599217      -0.50849140       0.45555135
Si       4.13410682       1.35091567       4.00790151      -0.41457235       0.85654586       0.25867490
Si      -0.07221306       0.02694216      -0.01589121       0.55097625      -0.01525699      -0.05413186
Si       1.31963367       4.12222900       4.11041848       0.13894836      -0.75515442       0.52353325
Si       2.72474598       2.68042172       0.00786484      -0.00651320       0.04389103      -0.08573027
Si       1.37273787       1.23410700       1.42727017      -0.19849343       1.20396216      -0.92129409
Si       2.71601987      -0.06803560       2.75764728       0.22796710       0.27207718       0.49614023
8
Lattice="5.465569031751371 0.0 0.0 -3.0114292744801556e-16 5.464441562475672 0.0 3.012365746894276e-16 3.012365746894276e-16 5.466140854843272" Properties=species:S:1:pos:R:3:forces:R:3 coverage_query_structure=Si coverage_query_source=/share/home/wuyb/hj_test/test/workspace/stru/Si.vasp coverage_query_source_frame=0 energy=-43.13339510008136 pbc="T T T"
Si       4.11097073       4.12619662       1.39713207      -0.15701978      -0.70985281      -0.45824740
Si      -0.04291941       2.69243249       2.71364799       0.16869203       0.22624729       0.59001521
Si       4.08579740       1.25315020       4.06451931       0.11177664       1.23794281       1.01541939
Si       0.03268312      -0.04574756       0.02608636      -0.50306025       0.13489198      -0.62788830
Si       1.37468900       4.17366599       4.03305724      -0.24453469      -1.35169853       0.48124861
Si       2.71548088       2.77697250       0.00969190       0.03480600      -0.56321285      -0.45532468
Si       1.29602644       1.33854874       1.36016986       0.95118512       0.69322679      -0.10451801
Si       2.73651231      -0.00485105       2.70436391      -0.36184506       0.33245531      -0.44070482
8
Lattice="5.486764569741185 0.0 0.0 -3.025473245068094e-16 5.4899252944806864 0.0 3.0237259789316324e-16 3.0237259789316324e-16 5.486754762209572" Properties=species:S:1:pos:R:3:forces:R:3 coverage_query_structure=Si coverage_query_source=/share/home/wuyb/hj_test/test/workspace/stru/Si.vasp coverage_query_source_frame=0 energy=-43.34628452113104 pbc="T T T"
Si       4.09675448       4.08487028       1.34067352      -0.07700100       0.05475376       0.07826390
Si      -0.02771811       2.72444894       2.73874924       0.05968763      -0.13313959      -0.19300308
Si       4.10468280       1.36209811       4.12362632      -0.26056795      -0.29911015      -0.41202504
Si      -0.02078163      -0.03740835      -0.02804829       0.13395842       0.21727634       0.26429754
Si       1.33452840       4.08190903       4.10080354       0.25877578       0.28686478      -0.30859850
Si       2.70946186       2.72110504      -0.02570725       0.17916383       0.10867933       0.03886069
Si       1.37863107       1.35892461       1.35365887      -0.61112775      -0.01670082      -0.12823534
Si       2.71248607      -0.01106346       2.68429877       0.31711105      -0.21862364       0.66043982
8
Lattice="5.441450962947838 0.0 0.0 -3.000885097375882e-16 5.445308441834595 0.0 2.9999653834430084e-16 2.9999653834430084e-16 5.443639558861608" Properties=species:S:1:pos:R:3:forces:R:3 coverage_query_structure=Si coverage_query_source=/share/home/wuyb/hj_test/test/workspace/stru/Si.vasp coverage_query_source_frame=0 energy=-43.01890408478065 pbc="T T T"
Si       4.04481623       4.03745620       1.29434381       0.59884101       1.03394069       1.12411553
Si       0.05283647       2.74537905       2.72629794      -0.63249055      -0.09851874      -0.86804754
Si       4.07273884       1.47999668       4.09207985       0.58149791      -1.58682993      -0.98763342
Si      -0.03504645       0.04406822      -0.02280317       0.19682525      -0.37663817       0.05974516
Si       1.34916695       3.97768591       4.14057769       0.15396264       1.56176543      -0.04301761
Si       2.74774601       2.66593799       0.00298059      -0.51358410       0.67815224       0.17663617
Si       1.39199034       1.39663834       1.32099142      -0.43536934      -1.15677169       0.92407465
Si       2.70911014      -0.01766133       2.77670180       0.05031719      -0.05509984      -0.38587294
8
Lattice="5.5184024897513595 0.0 0.0 -3.039460362272737e-16 5.515305862186515 0.0 3.0424411099208093e-16 3.0424411099208093e-16 5.5207146298681185" Properties=species:S:1:pos:R:3:forces:R:3 coverage_query_structure=Si coverage_query_source=/share/home/wuyb/hj_test/test/workspace/stru/Si.vasp coverage_query_source_frame=0 energy=-43.04503928746649 pbc="T T T"
Si       4.12534935       3.98841135       1.36229545      -0.16114282       1.28085406      -0.12331570
Si      -0.12551275       2.62675863       2.78086982       0.73726655       0.66572612       0.33191661
Si       4.07185429       1.29517461       4.20747404       0.01802114      -0.26333798      -0.32237571
Si       0.02383446      -0.07253891      -0.03538280      -0.11771811      -0.23569158       0.40188391
Si       1.42647469       4.10609689       4.05570908      -1.14867728       0.49003471      -0.75828079
Si       2.69372978       2.79054237      -0.09760757       0.49175793      -0.49176541       0.69175868
Si       1.29161241       1.48880945       1.29579161       0.31661113      -1.16922032       0.25607359
Si       2.74906477       0.03624925       2.68494523      -0.13611854      -0.27659959      -0.47766059
8
Lattice="5.424412302250001 0.0 0.0 -2.991142175018893e-16 5.427629251983209 0.0 2.9891080168515585e-16 2.9891080168515585e-16 5.42393813476902" Properties=species:S:1:pos:R:3:forces:R:3 coverage_query_structure=Si coverage_query_source=/share/home/wuyb/hj_test/test/workspace/stru/Si.vasp coverage_query_source_frame=0 energy=-43.144164499472566 pbc="T T T"
Si       4.03599004       4.15331906       1.34919765       0.26308512      -0.75914444      -0.13728959
Si       0.08270578       2.79832281       2.63246957      -0.21507055      -0.20606537      -0.18819183
Si       4.10893130       1.42737531       3.92084068       0.07076109       0.32467698       1.05925939
Si      -0.05134706       0.07164451      -0.00935218      -0.13327315       0.19011833      -0.17123511
Si       1.28806841       4.08261778       4.15817706       0.83448924      -0.63827674       0.32947412
Si       2.75623664       2.64217038       0.06070751      -0.41838442       0.27730502      -0.52942759
Si       1.39408514       1.23362176       1.41393451       0.08356233       0.78457014      -0.19590819
Si       2.73572694      -0.06189136       2.82489655      -0.48516966       0.02681607      -0.16668121
8
Lattice="5.538761874724572 0.0 0.0 -3.056130411552794e-16 5.545554791127465 0.0 3.0541516300227314e-16 3.0541516300227314e-16 5.541964158557177" Properties=species:S:1:pos:R:3:forces:R:3 coverage_query_structure=Si coverage_query_source=/share/home/wuyb/hj_test/test/workspace/stru/Si.vasp coverage_query_source_frame=0 energy=-42.88522035530261 pbc="T T T"
Si       4.17473007       4.16378810       1.42472993      -0.49084190      -1.24569961      -0.78807743
Si      -0.09471286       2.68804983       2.80590810       0.06377009      -0.38882783       0.06425858
Si       4.08821832       1.16999823       4.19984679      -0.44247136       1.34502624      -0.37261109
Si      -0.01722641      -0.12920009      -0.01383787       0.50229518       0.26639170      -0.24805830
Si       1.34784008       4.20294727       3.95003975       0.13772683      -0.90982660       1.05806375
Si       2.72525026       2.79161282      -0.05986554       0.01640050      -0.23234185      -0.03703816
Si       1.30270955       1.33909184       1.35358804      -0.25368721       1.14334576      -0.87701392
Si       2.70923862       0.00296671       2.57243614       0.46680786       0.02193219       1.20047658
8
Lattice="5.404201378020649 0.0 0.0 -2.976475336271137e-16 5.401015283684996 0.0 2.9820886095063096e-16 2.9820886095063096e-16 5.411200946628365" Properties=species:S:1:pos:R:3:forces:R:3 coverage_query_structure=Si coverage_query_source=/share/home/wuyb/hj_test/test/workspace/stru/Si.vasp coverage_query_source_frame=0 energy=-43.1683316196043 pbc="T T T"
Si       4.03556872       4.11002031       1.33918659       0.14621984      -0.16774614       0.08130299
Si       0.08078002       2.77665864       2.60763516      -0.25221952       0.12388868       0.60179958
Si       4.09609456       1.42236595       3.95243449       0.24915139       0.37768261       0.86755047
Si      -0.00451338       0.08043418       0.01903339      -0.61018952      -0.06453260      -0.49376697
Si       1.33885884       4.07690439       4.16222280      -0.05087596      -0.63315127      -0.13665328
Si       2.72070998       2.67889768       0.04718137      -0.00426634      -0.22736391      -0.36175745
Si       1.36382861       1.28473491       1.39343536       0.89787355       0.23458832       0.31005146
Si       2.73928077      -0.05622184       2.84247939      -0.37569343       0.35663431      -0.86852680
8
Lattice="5.544250446084161 0.0 0.0 -3.0532126398666243e-16 5.540260297576899 0.0 3.054705906608395e-16 3.054705906608395e-16 5.542969930812054" Properties=species:S:1:pos:R:3:forces:R:3 coverage_query_structure=Si coverage_query_source=/share/home/wuyb/hj_test/test/workspace/stru/Si.vasp coverage_query_source_frame=0 energy=-43.16481152478363 pbc="T T T"
Si       4.11798913       4.04100449       1.33881160       0.00279430       0.82270420       0.12932539
Si      -0.09356110       2.67868984       2.77905389       0.39911822       0.23069351      -0.18561517
Si       4.09297827       1.33598301       4.18569206      -0.09129888      -0.55633391      -0.60195175
Si      -0.02285851      -0.08296621      -0.07255392       0.03235020       0.07056924       0.54769869
Si       1.37427511       4.07543125       4.10394166      -0.45756299       0.69690907      -0.75360485
Si       2.70870863       2.75558189      -0.07745464       0.36973941      -0.13788097       0.40383431
Si       1.34108927       1.42811253       1.30071472      -0.48093134      -0.79710540       0.23831986
Si       2.71193826       0.00271240       2.67363419       0.22579109      -0.32955573       0.22199352
8
Lattice="5.404190069698799 0.0 0.0 -2.98335504411641e-16 5.41349897765914 0.0 2.977201431875833e-16 2.977201431875833e-16 5.402332833140357" Properties=species:S:1:pos:R:3:forces:R:3 coverage_query_structure=Si coverage_query_source=/share/home/wuyb/hj_test/test/workspace/stru/Si.vasp coverage_query_source_frame=0 energy=-43.17658558108609 pbc="T T T"
Si       4.04645957       4.04332545       1.32404313       0.44031697       0.59474725       0.77118934
Si       0.04663334       2.73717496       2.74507698      -0.48814573      -0.16337326      -0.94677411
Si       4.06477867       1.44017827       4.08125656       0.42289162      -1.08128155      -0.53902686
Si      -0.00266548       0.04199080       0.01308210       0.20232603      -0.22006804       0.00930195
Si       1.35166702       4.01455436       4.08555715       0.39402516       1.11237226       0.32497360
Si       2.73937759       2.68321432       0.01295015      -0.56671489       0.55600462       0.13622255
Si       1.39605209       1.39067863       1.35914153      -0.32308906      -0.64703548       0.48649011
Si       2.72831662       0.01019372       2.75136906      -0.08161009      -0.15136580      -0.24237658
8
Lattice="5.526730144004696 0.0 0.0 -3.0467123847719287e-16 5.528465146215667 0.0 3.0487843399862566e-16 3.0487843399862566e-16 5.532224848721229" Properties=species:S:1:pos:R:3:forces:R:3 coverage_query_structure=Si coverage_query_source=/share/home/wuyb/hj_test/test/workspace/stru/Si.vasp coverage_query_source_frame=0 energy=-43.2717299430933 pbc="T T T"
Si       4.12577668       4.11326682       1.37332931      -0.46142438       0.04056789      -0.59590383
Si      -0.06918556       2.70456957       2.68128742       0.54157792       0.25373112       0.72955954
Si       4.11953587       1.32118289       4.08430802      -0.34213085       0.32742075       0.18010487
Si      -0.05163144      -0.03499845      -0.05633720       0.21815394      -0.15196513       0.20086178
Si       1.37225440       4.11591052       4.12447754      -0.60710720      -0.25929366      -0.33884563
Si       2.71396962       2.73274992      -0.05027002       0.36696296      -0.23873429       0.29725172
Si       1.31892378       1.33867279       1.35159591       0.26511187      -0.04959079      -0.34925866
Si       2.71843601      -0.04500970       2.73419367       0.01885572       0.07786411      -0.12376977
8
Lattice="5.429449374069178 0.0 0.0 -2.988255381718614e-16 5.422390970803582 0.0 2.9934940689561484e-16 2.9934940689561484e-16 5.4318969221855475" Properties=species:S:1:pos:R:3:forces:R:3 coverage_query_structure=Si coverage_query_source=/share/home/wuyb/hj_test/test/workspace/stru/Si.vasp coverage_query_source_frame=0 energy=-42.986533776684844 pbc="T T T"
Si       4.10140664       4.11612276       1.40369249       0.07218292      -1.18413006      -0.34522916
Si      -0.03971393       2.68200982       2.77523260       0.03533714       0.02501882      -0.00471979
Si       4.07667128       1.22479179       4.10004347      -0.03395595       1.34060287       0.95970268
Si       0.07897179      -0.06009914       0.06553311      -0.56491313       0.38621509      -0.67147478
Si       1.33930918       4.19609017       3.96040031       0.62926570      -1.42271616       0.72912595
Si       2.71450642       2.78613651       0.03220078      -0.20403662      -0.42059460      -0.86829950
Si       1.32115329       1.35308968       1.37333490       0.47034923       1.20928058      -0.21928108
Si       2.75305544       0.05427694       2.63247492      -0.40422929       0.06632346       0.42017568
8
Lattice="5.513049057589976 0.0 0.0 -3.041161914087919e-16 5.51839344273785 0.0 3.0367726590884816e-16 3.0367726590884816e-16 5.51042884345251" Properties=species:S:1:pos:R:3:forces:R:3 coverage_query_structure=Si coverage_query_source=/share/home/wuyb/hj_test/test/workspace/stru/Si.vasp coverage_query_source_frame=0 energy=-43.026654348231276 pbc="T T T"
Si       4.09925085       4.20216757       1.34169070      -0.44701421      -1.24258121      -0.24556315
Si       0.03948551       2.82304877       2.63638526      -0.30459782      -0.88252128       0.15640096
Si       4.15146425       1.37680963       4.01986866      -0.51793501       0.40423079      -0.06540032
Si      -0.10785039      -0.00478441      -0.04714108       0.58382963       0.37600864      -0.05402387
Si       1.26871237       4.11157302       4.15494959       0.75267230      -0.50342085       0.29753255
Si       2.72939789       2.64861428       0.01226262       0.09009964       0.42716256      -0.30160326
Si       1.40059256       1.19834881       1.40384940      -0.90619666       1.41293423      -0.89715259
Si       2.68070739      -0.09936164       2.74251551       0.74914212       0.00818712       1.10980967
8
Lattice="5.461472826700739 0.0 0.0 -3.016138515781487e-16 5.472986798491275 0.0 3.0113536758497047e-16 3.0113536758497047e-16 5.464304383660961" Properties=species:S:1:pos:R:3:forces:R:3 coverage_query_structure=Si coverage_query_source=/share/home/wuyb/hj_test/test/workspace/stru/Si.vasp coverage_query_source_frame=0 energy=-43.06844908994313 pbc="T T T"
Si       4.12042333       4.00184443       1.38117224       0.32307936       0.89447938       0.38915180
Si      -0.05586500       2.62098795       2.84012645      -0.13965701       0.47563937      -0.17537708
Si       4.00098724       1.27948811       4.21278868       0.74109631      -0.31296479      -0.26896455
Si       0.08863057      -0.07763543       0.01147770      -0.72776420      -0.10219077      -0.15781554
Si       1.43297588       4.09098637       3.99674747      -0.60542483       0.42123407      -0.15449608
Si       2.72237463       2.81345158      -0.04519030      -0.00131771      -0.35491536       0.24579077
Si       1.26237249       1.51936090       1.25696068       0.76763918      -1.05373288       0.80521027
Si       2.74143753       0.05333877       2.65642218      -0.35765108       0.03245098      -0.68349959
8
Lattice="5.471711050238544 0.0 0.0 -3.011574216700719e-16 5.4647045699123495 0.0 3.0185875236925155e-16 3.0185875236925155e-16 5.477430688550085" Properties=species:S:1:pos:R:3:forces:R:3 coverage_query_structure=Si coverage_query_source=/share/home/wuyb/hj_test/test/workspace/stru/Si.vasp coverage_query_source_frame=0 energy=-43.02720658972583 pbc="T T T"
Si       4.03545081       4.03605055       1.28866312       0.31067719       1.25240844       0.46216908
Si       0.02567357       2.75987466       2.62632952       0.27073256       0.39918493       0.27388599
Si       4.12228981       1.49880627       4.01785638      -0.11707497      -1.05705801      -0.13270885
Si      -0.06451299       0.07911825      -0.07253027       0.14256006      -0.51811532       0.66071945
Si       1.34321045       4.00357309       4.23859661      -0.76417265       1.06946437      -1.25271480
Si       2.70443477       2.65816436      -0.02677267       0.44393200      -0.11072435       0.41043965
Si       1.40074131       1.34613884       1.36166465      -0.22919397      -1.10186419       0.42748630
Si       2.73581072      -0.07162109       2.86357145      -0.05746021       0.06670413      -0.84927681
8
Lattice="5.504871735524728 0.0 0.0 -3.0304426461119705e-16 5.498942607898904 0.0 3.0342491528420194e-16 3.0342491528420194e-16 5.505849771138491" Properties=species:S:1:pos:R:3:forces:R:3 coverage_query_structure=Si coverage_query_source=/share/home/wuyb/hj_test/test/workspace/stru/Si.vasp coverage_query_source_frame=0 energy=-43.254517002245954 pbc="T T T"
Si       4.12361778       4.08533724       1.36344394      -0.01147443      -0.06990565       0.17481680
Si      -0.05496850       2.69146225       2.82295156      -0.26493972      -0.23153230      -0.93375472
Si       4.06388136       1.31468127       4.16591499       0.27534317      -0.34206231      -0.27801239
Si      -0.00362236      -0.07884124      -0.02606590       0.03967214       0.26281024      -0.02470578
Si       1.32807097       4.09100498       4.01299051       0.84275462       0.42025232       0.64558365
Si       2.75232137       2.73367098      -0.03927593      -0.54453984       0.48362350      -0.00787147
Si       1.33611978       1.40029308       1.32136490      -0.27696432      -0.06914185       0.04427431
Si       2.72451735       0.03825833       2.64763564      -0.05985163      -0.45404395       0.37966960
8
Lattice="5.424625147878965 0.0 0.0 -2.996762646596522e-16 5.437827976804623 0.0 2.989504224959896e-16 2.989504224959896e-16 5.424657081108851" Properties=species:S:1:pos:R:3:forces:R:3 coverage_query_structure=Si coverage_query_source=/share/home/wuyb/hj_test/test/workspace/stru/Si.vasp coverage_query_source_frame=0 energy=-43.175235504245435 pbc="T T T"
Si       4.08084470       4.14491409       1.37511941      -0.48957654      -0.84173458      -0.58890245
Si       0.03727781       2.76537160       2.62720241       0.17896080      -0.08323839       0.81129457
Si       4.12669423       1.35875949       3.99197637      -0.48852920       0.80695097       0.44842170
Si      -0.03766195       0.05092668       0.02047705       0.34812581      -0.16716751      -0.32489651
Si       1.34976047       4.11704345       4.11415140      -0.26424097      -0.83415938       0.26362322
Si       2.71314503       2.69193945       0.02432094       0.18444572      -0.13944054      -0.04462521
Si       1.35900744       1.26157889       1.42721723       0.38042095       0.89585842      -0.63661465
Si       2.72111661      -0.05355214       2.76968759       0.15039343       0.36293100       0.07169932
8
Lattice="5.527641037038043 0.0 0.0 -3.047465927705001e-16 5.5298325006999685 0.0 3.0491885046520355e-16 3.0491885046520355e-16 5.532958232771274" Properties=species:S:1:pos:R:3:forces:R:3 coverage_query_structure=Si coverage_query_source=/share/home/wuyb/hj_test/test/workspace/stru/Si.vasp coverage_query_source_frame=0 energy=-43.084077666486124 pbc="T T T"
Si       4.10190104       4.16719550       1.36075229       0.13887873      -0.74164251      -0.30053316
Si      -0.03488940       2.72179636       2.67236993      -0.12471675       0.16434214       0.62968385
Si       4.12866305       1.26033808       4.03927702      -0.17020379       1.22679217       0.85418408
Si      -0.02090106      -0.04614114      -0.03372423      -0.47321339       0.01263581      -0.40393588
Si       1.34922843       4.17103454       4.10076565      -0.11450649      -1.22676094       0.26777729
Si       2.71439751       2.76021843       0.01493330       0.08568592      -0.63916987      -0.70461614
Si       1.29100096       1.28034610       1.35741170       0.80773819       0.78596406      -0.15581095
Si       2.71776792      -0.06981089       2.73006559      -0.14966243       0.41783914      -0.18674909
8
Lattice="5.406555588470573 0.0 0.0 -2.974211300640688e-16 5.396907038307037 0.0 2.9831005511804303e-16 2.9831005511804303e-16 5.413037183059252" Properties=species:S:1:pos:R:3:forces:R:3 coverage_query_structure=Si coverage_query_source=/share/home/wuyb/hj_test/test/workspace/stru/Si.vasp coverage_query_source_frame=0 energy=-43.206777895875156 pbc="T T T"
Si       4.08280964       4.06213387       1.35941619      -0.13305145      -0.25702552       0.25081235
Si       0.00599615       2.72086785       2.77897544      -0.20707207      -0.49688541      -0.64340878
Si       4.07319071       1.35327586       4.14132915      -0.16473297      -0.24419534      -0.54125136
Si       0.04308000      -0.02873755       0.02834251       0.07049260       0.70734028       0.21606648
Si       1.33849434       4.08593230       4.03379775       0.73689395       0.12869702       0.05444233
Si       2.69799356       2.73423235       0.00380591       0.24872780       0.35193357      -0.21806107
Si       1.42038322       1.39792085       1.36627363      -1.21861698       0.15992967      -0.13287798
Si       2.70630628       0.05227693       2.64983173       0.66735912      -0.34979427       1.01427803
8