8
Lattice="5.44370237 0.0 0.0 0.0 5.44370237 0.0 0.0 0.0 5.44370237" Properties=species:S:1:pos:R:3:forces:R:3 virial="0.793722 -0.0956867 1.04632696 -0.0956867 1.48165751 1.25882712 1.04632696 1.25882712 1.73198973" main=-1 energy=-42.67871375 pbc="T T T"
Si       4.11911197       4.07225094       1.45097651       0.21441602       0.13743380      -0.68775102
Si       5.38210797       2.68374973       2.83742790       1.35050445      -0.04507867      -0.91061669
Si       3.97869988       1.40189005       4.14502323       1.39437825       0.76391069       1.25028287
Si       5.39781599       5.31666252       5.26486303       0.06559349       0.21876886       1.09580666
Si       1.51107777       4.11580965       4.00580114      -0.61595863      -0.13446682      -0.45075810
Si       2.71161909       2.80436715       0.02809674      -0.81046525      -0.72974638       1.24719366
Si       1.22669641       1.23625163       1.29724233       0.66961255       0.98991403       0.34982252
Si       2.89138272       0.14382779       2.74537859      -2.26808090      -1.20073551      -1.89397991
8
Lattice="5.44370237 0.0 0.0 0.0 5.44370237 0.0 0.0 0.0 5.44370237" Properties=species:S:1:pos:R:3:forces:R:3 virial="1.75480722 -1.59836911 0.20062979 -1.59836911 2.3878832 -1.83620975 0.20062979 -1.83620975 2.20269642" main=-1 energy=-42.61925608 pbc="T T T"
Si       4.23116323       4.07333653       1.45202078      -1.80596515      -0.48455039      -0.62774786
Si       0.04284477       2.59336092       2.74289882      -0.51812926       1.44023769       1.61200259
Si       4.05125475       1.25843146       4.06438773      -0.48396760       0.54649283       0.26629603
Si       0.01280876       0.03120020       0.10297906      -0.21441357      -0.57820979      -1.24673074
Si       1.41561651       4.12736059       4.13055109      -1.25792239       0.74647119      -1.43140534
Si       2.61613269       2.74861417       5.37285863       2.50634957      -0.41559309       1.06540975
Si       1.31408379       1.42867214       1.33937495       0.63156074       0.07859826      -0.85716000
Si       2.64720267       0.07013105       2.56973846       1.14248766      -1.33344670       1.21933558
8
Lattice="5.44370237 0.0 0.0 0.0 5.44370237 0.0 0.0 0.0 5.44370237" Properties=species:S:1:pos:R:3:forces:R:3 virial="0.61488643 1.51566624 0.25160321 1.51566624 1.47991553 0.28454795 0.25160321 0.28454795 1.54618259" main=-1 energy=-42.52131468 pbc="T T T"
Si       4.16565736       4.05727956       1.44402861      -0.66014577       0.15377041       0.02347644
Si       5.44155646       2.68592172       2.82212914       1.05554234      -0.25358371      -0.92337010
Si       3.96815184       1.46525061       4.13816111       1.64741809       0.47270542       1.42082900
Si       5.34731759       5.26317869       5.28268108       0.39683825       0.84160582       0.16107068
Si       1.54432512       4.14231216       3.96847667      -1.32646498      -0.60258607       0.44825810
Si       2.67965177       2.82021333       0.04366078      -0.58102042      -0.69259296       1.14541377
Si       1.19785089       1.20558198       1.25918911       0.95564221       0.91947761       0.74146545
Si       2.87400087       0.13507148       2.81648298      -1.48780972      -0.83879651      -3.01714333
8
Lattice="5.44370237 0.0 0.0 0.0 5.44370237 0.0 0.0 0.0 5.44370237" Properties=species:S:1:pos:R:3:forces:R:3 virial="1.28465281 0.48721387 0.28745793 0.48721387 1.52963941 1.22684753 0.28745793 1.22684753 1.90687385" main=-1 energy=-43.06070539 pbc="T T T"
Si       4.13455433       4.06692417       1.39093781      -0.36160779      -0.17318279       0.68756571
Si       0.10812156       2.62474833       2.73783422      -1.41925204       0.95398033       0.60020442
Si       4.00748155       1.37295612       4.09986755       0.99841326       0.08136132       0.37931340
Si       0.01914175       5.38343073       0.02955190      -0.95859137       0.07359494      -1.13407715
Si       1.40802897       4.08247552       4.08636167      -0.27169022       0.55714533      -0.72289819
Si       2.67553774       2.77995155       0.01770118       0.76542958      -0.40502437       0.32451330
Si       1.27647880       1.35352308       1.28262191       1.18166437       0.02478958       0.08940315
Si       2.70176240       0.11079992       2.68623086       0.06563421      -1.11266433      -0.22402464
8
Lattice="5.44370237 0.0 0.0 0.0 5.44370237 0.0 0.0 0.0 5.44370237" Properties=species:S:1:pos:R:3:forces:R:3 virial="1.52461675 0.0008489 0.4691557 0.0008489 1.76579511 -0.45284793 0.4691557 -0.45284793 1.67287364" main=-1 energy=-42.94803361 pbc="T T T"
Si       4.12994864       4.02042951       1.28776011      -0.53557032       0.17726841       0.49129850
Si       5.38277030       2.76684251       2.71110575       0.75919705      -0.89428407       1.15024061
Si       4.02324701       1.26214929       4.06178728       0.65914460       0.73695223       0.13981793
Si       5.40412105       0.00418833       0.10628464       1.04060152       1.21932954      -0.77663209
Si       1.30044415       4.10264188       4.17043274       0.38270721       0.36567948      -1.14653133
Si       2.73707488       2.74808673       5.42978054      -0.16671431      -0.52348871      -0.85804693
Si       1.43902383       1.47318306       1.39580661      -0.77614531      -0.83356339       0.17833512
Si       2.80188199       5.39728822       2.61185187      -1.36322046      -0.24789348       0.82151819
8
Lattice="5.44370237 0.0 0.0 0.0 5.44370237 0.0 0.0 0.0 5.44370237" Properties=species:S:1:pos:R:3:forces:R:3 virial="1.25123114 1.85473512 0.56488617 1.85473512 1.27119726 1.05762474 0.56488617 1.05762474 1.29964127" main=-1 energy=-43.01320696 pbc="T T T"
Si       4.12580892       4.08835211       1.33023922      -0.00447882      -0.07863863       1.01042757
Si       5.39855835       2.74183507       2.87469233       0.28934753      -0.35048195      -1.68595290
Si       3.99844343       1.38450662       4.12238586       1.03174400      -0.01864937       0.73435684
Si       5.42375191       5.34434729       5.34680730       0.51988184       0.59166647      -0.10060291
Si       1.46645884       4.06202277       3.99589845       0.17724628       0.47390845       0.62476697
Si       2.74340547       2.73665501       0.05315487      -1.14210045      -0.23966465       0.25612121
Si       1.24742451       1.31350071       1.34269169       0.33009418       0.52516145       0.37465057
Si       2.81466038       0.10358990       2.70893981      -1.20173456      -0.90330177      -1.21376735
8
Lattice="5.44370237 0.0 0.0 0.0 5.44370237 0.0 0.0 0.0 5.44370237" Properties=species:S:1:pos:R:3:forces:R:3 virial="0.94904653 -1.2587393 -1.19918733 -1.2587393 1.56923733 -0.51858854 -1.19918733 -0.51858854 1.08031006" main=-1 energy=-42.8202151 pbc="T T T"
Si       4.09764347       3.98454892       1.32031399      -0.18390917      -0.13238717      -0.32324675
Si       5.41220304       2.74363977       2.71285193       0.94662122      -0.49052919       1.03667886
Si       4.00547588       1.30451310       4.03061315       1.12049148      -0.59570760      -0.26309719
Si       5.39520317       0.04679058       0.18240475       0.52412164       1.22407083      -0.76631449
Si       1.26597191       4.16021551       4.23237854       0.12246370      -0.05447628      -1.60539542
Si       2.73552038       2.71640193       5.31668767       0.04437027       0.57039587       0.01939932
Si       1.54121334       1.49945448       1.37258034      -1.44721224      -1.12184447       0.56798364
Si       2.76528072       5.31924518       2.60697905      -1.12694689       0.60047801       1.33399204
8
Lattice="5.44370237 0.0 0.0 0.0 5.44370237 0.0 0.0 0.0 5.44370237" Properties=species:S:1:pos:R:3:forces:R:3 virial="1.82269952 -1.67546787 -0.03300986 -1.67546787 1.94019662 0.62880455 -0.03300986 0.62880455 2.21171817" main=-1 energy=-42.73229543 pbc="T T T"
Si       4.21694101       4.06375245       1.43507835      -1.27352862      -0.39551184      -0.16349023
Si       0.04897851       2.57148475       2.74331402      -0.71253241       1.71438328       1.71425927
Si       4.01504765       1.29817925       4.08803343       0.17644857       0.35958763       0.23021767
Si       0.02038514       5.41778686       0.04876256      -0.94765021      -0.10522071      -0.93090913
Si       1.40011355       4.12924847       4.16710457      -0.28197394       0.27305349      -2.18985897
Si       2.68433172       2.79248992       5.41796961       1.22062249      -0.70640266       1.04083392
Si       1.24091939       1.38953394       1.30483259       1.75881198       0.22980417      -0.70755576
Si       2.70439013       0.11233385       2.56971435       0.05980214      -1.36969336       1.00650324
8
Lattice="5.44370237 0.0 0.0 0.0 5.44370237 0.0 0.0 0.0 5.44370237" Properties=species:S:1:pos:R:3:forces:R:3 virial="1.06926385 -2.08932845 -1.09168734 -2.08932845 1.59257495 0.20334594 -1.09168734 0.20334594 1.67570135" main=-1 energy=-42.87682488 pbc="T T T"
Si       4.20368995       4.08312174       1.49882426      -1.38786334      -0.22969026      -0.89127531
Si       0.08713130       2.62136055       2.66736773      -0.61311463       0.71837804       2.06015629
Si       3.98726266       1.41260854       4.17626278       1.10658780      -0.30111825      -0.82995671
Si       5.42540952       5.32626669       5.39895759      -0.75409656       0.67588473      -0.12991559
Si       1.45051304       4.14921199       4.07201833      -0.49312606      -0.65605337      -1.11795020
Si       2.64188407       2.76214939       0.01965002       0.81611495       0.44466270       1.12337190
Si       1.25569251       1.30724415       1.26834482       0.98218314      -0.26191900      -0.43114827
Si       2.72322643       0.11284648       2.67338394       0.34331471      -0.39014459       0.21671789
8
Lattice="5.44370237 0.0 0.0 0.0 5.44370237 0.0 0.0 0.0 5.44370237" Properties=species:S:1:pos:R:3:forces:R:3 virial="1.49424306 1.49997285 -2.01995806 1.49997285 2.23034283 -1.66631318 -2.01995806 -1.66631318 1.92134831" main=-1 energy=-42.66738493 pbc="T T T"
Si       4.13693677       4.04393803       1.28825962      -1.05144143      -0.94465367       0.47847944
Si       5.31509289       2.71032540       2.71383033       1.82991915       0.14404372       0.70046999
Si       4.04916017       1.27788131       4.02231216       0.21434379      -0.08880306       0.93602499
Si       5.40404075       0.00416656       0.16904106       1.44842182       1.92631716      -1.51947027
Si       1.28771025       4.15687009       4.17293271       0.18677818      -0.51255439      -1.06615139
Si       2.72946377       2.71873385       5.41059290       0.36311022       0.60920393      -1.33353474
Si       1.47541934       1.51709556       1.36167459      -1.24515868      -1.71594634       1.22832913
Si       2.82068792       5.34579869       2.63616600      -1.74597305       0.58239264       0.57585284
8
Lattice="5.44370237 0.0 0.0 0.0 5.44370237 0.0 0.0 0.0 5.44370237" Properties=species:S:1:pos:R:3:forces:R:3 virial="1.48083983 0.93992902 0.42095319 0.93992902 2.16273543 -2.58310233 0.42095319 -2.58310233 1.83902434" main=-1 energy=-42.79222623 pbc="T T T"
Si       4.22047893       4.03655757       1.23733319      -2.01013935      -0.55562964       1.92266684
Si       5.35373768       2.78565007       2.79333968       0.94036695      -0.91799683       0.36332757
Si       4.02435017       1.32314543       4.14838820      -0.10849358       0.16171509      -0.75824533
Si       5.35790064       5.39560138       0.02810186       2.67440669       1.65069369      -1.44084544
Si       1.42407167       4.05525843       4.09279716      -0.36252896       1.06279354      -0.56287248
Si       2.72510440       2.74610625       0.04200230      -0.34320558      -0.65800549      -0.18314409
Si       1.31693394       1.41826721       1.40164960      -0.38759439      -0.28874307      -0.03728974
Si       2.79593448       0.01422314       2.58749511      -0.40281177      -0.45482729       0.69640267
8
Lattice="5.44370237 0.0 0.0 0.0 5.44370237 0.0 0.0 0.0 5.44370237" Properties=species:S:1:pos:R:3:forces:R:3 virial="1.19435532 0.70144866 -0.0016798 0.70144866 1.69148619 -1.59069898 -0.0016798 -1.59069898 1.31647405" main=-1 energy=-43.01385098 pbc="T T T"
Si       4.09927599       4.04752766       1.35831741      -0.48460573      -0.25329851      -0.43450462
Si       5.38266034       2.76026140       2.75749094       1.31818757      -0.74026842      -0.24822706
Si       4.06586842       1.29210304       4.01371922       0.20169784       0.03379554       0.50417862
Si       5.41771746       0.08343895       0.15692898       0.30966184      -0.02784862      -1.09076703
Si       1.28242610       4.11724010       4.16388593      -0.08966228       0.34075624      -0.40132754
Si       2.71819519       2.69800124       5.35022665       0.85709270       0.71495571      -0.36280854
Si       1.52781454       1.40902479       1.30473466      -1.61772714      -0.06352004       1.45473595
Si       2.72455387       5.36721236       2.66950563      -0.49464480      -0.00457189       0.57872022
8
Lattice="5.44370237 0.0 0.0 0.0 5.44370237 0.0 0.0 0.0 5.44370237" Properties=species:S:1:pos:R:3:forces:R:3 virial="0.29824889 0.75874976 0.8632038 0.75874976 0.19195738 0.67879977 0.8632038 0.67879977 0.56163566" main=-1 energy=-43.04774494 pbc="T T T"
Si       4.14328984       4.03761593       1.48651730      -0.04194794       0.39013441       0.13330020
Si       0.09696372       2.63675289       2.76486003      -0.53925228      -0.39898485       0.04561245
Si       3.98692624       1.41712507       4.19497818       0.92112725       0.27391472      -0.03360796
Si       5.38951303       5.27139161       5.36233132      -0.38047563       0.54787445      -0.23412607
Si       1.45713029       4.13534030       3.96330961      -0.17858806      -0.25618677       0.41404012
Si       2.68168243       2.87372449       0.10644583      -0.30628100      -0.93613270      -0.39902135
Si       1.25930158       1.25202013       1.20682875       0.60221458       0.81369919       0.58501216
Si       2.76000234       0.15083906       2.68953840      -0.07679692      -0.43431845      -0.51120955
8
Lattice="5.44370237 0.0 0.0 0.0 5.44370237 0.0 0.0 0.0 5.44370237" Properties=species:S:1:pos:R:3:forces:R:3 virial="1.87690823 0.14235523 -2.8146453 0.14235523 1.81387671 0.1046436 -2.8146453 0.1046436 1.82343929" main=-1 energy=-42.90765061 pbc="T T T"
Si       4.15338579       4.10303530       1.28579564      -1.07089981      -1.42527329       1.12278241
Si       5.36588628       2.70024856       2.72647566       0.36004498       0.43111583       0.83394186
Si       4.02333645       1.32538524       4.12834013       0.62666646      -0.49306074      -0.32021086
Si       5.44268483       5.36443651       0.06238548       1.08238459       2.32142106      -1.09401006
Si       1.32517103       4.11772763       4.10577294       0.87252790      -0.59599899      -0.96164794
Si       2.74460989       2.70875266       0.02607463      -0.59393451       0.73698954      -0.56860498
Si       1.35322950       1.46340351       1.38910508       0.01512136      -1.25254765      -0.03496379
Si       2.81020808       5.43552250       2.60715755      -1.29191098       0.27735424       1.02271336
8
Lattice="5.44370237 0.0 0.0 0.0 5.44370237 0.0 0.0 0.0 5.44370237" Properties=species:S:1:pos:R:3:forces:R:3 virial="0.92602209 -0.36105668 -1.06782965 -0.36105668 1.27748726 -0.24229264 -1.06782965 -0.24229264 0.80974018" main=-1 energy=-42.94435125 pbc="T T T"
Si       4.02944167       4.06610130       1.37297447       0.56699178      -0.87975942       0.01877089
Si       0.05259977       2.67747712       2.73966581       0.10395968       0.50354877      -0.35959219
Si       4.03581592       1.31850418       4.01551466       1.23357057      -0.66943091      -0.35339767
Si       5.40328517       0.10662890       0.17013541      -0.31862251      -0.20858627      -0.78587105
Si       1.28095374       4.16886534       4.21690813      -0.42434028      -0.51421696      -0.80150779
Si       2.76432448       2.68568796       5.26519624      -0.08653614       1.34588103       1.01687121
Si       1.55996439       1.37682779       1.28482819      -1.33622047       0.50950364       0.81373972
Si       2.64842440       5.37471694       2.70958658       0.26119736      -0.08693988       0.45098689
8
Lattice="5.55257642 0.0 0.0 0.0 5.55257642 0.0 0.0 0.0 5.55257642" Properties=species:S:1:pos:R:3:forces:R:3 virial="-3.72134805 -0.61430148 0.35027506 -0.61430148 -3.73613451 0.110757 0.35027506 0.110757 -3.71860493" main=-1 energy=-43.1358041 pbc="T T T"
Si       4.17275457       4.10805651       1.44856813      -0.07913987       0.66424898      -0.80462537
Si       5.54743007       2.76558240       2.79170771      -0.08164079      -0.26549046       0.20028332
Si       4.21133382       1.39256268       4.21698268      -0.56462301      -0.22659685      -0.19515671
Si       0.04879898       5.49700190       5.49819149      -0.40574419      -0.21881837       0.63460632
Si       1.40739006       4.07046462       4.15515279       0.50355868       0.88139608      -0.26241054
Si       2.73559105       2.74713530       0.05745695       0.57875235      -0.02426546      -0.14816734
Si       1.31874201       1.40201366       1.38126585       0.45157430      -0.71971641       0.11399802
Si       2.81875654       0.02286062       2.75194433      -0.40273746      -0.09075750       0.46147231
8
Lattice="5.44370237 0.0 0.0 0.0 5.44370237 0.0 0.0 0.0 5.44370237" Properties=species:S:1:pos:R:3:forces:R:3 virial="1.22791907 0.05622804 -0.03932003 0.05622804 1.21377543 0.30476934 -0.03932003 0.30476934 1.22629316" main=-1 energy=-43.38687547 pbc="T T T"
Si       4.07917054       4.08362033       1.35960680       0.02810418      -0.04585407       0.00318395
Si       0.00078983       2.72640217       2.71731827      -0.10334912      -0.04953912       0.09226177
Si       4.07269749       1.35263750       4.07800396       0.21768536       0.07798481       0.08705498
Si       0.00144677       5.43603704       0.00698128      -0.05080431       0.12717532      -0.11356838
Si       1.36061628       4.08197111       4.08214536       0.02182993      -0.03023652       0.03867353
Si       2.72632286       2.72091280       0.00030686      -0.09148824      -0.05579797      -0.01241477
Si       1.35533790       1.36238499       1.36581839       0.11150870      -0.03891610      -0.05967887
Si       2.72563831       5.43814141       2.72184765      -0.13348648       0.01518364      -0.03551220
8
Lattice="5.44370237 0.0 0.0 0.0 5.44370237 0.0 0.0 0.0 5.44370237" Properties=species:S:1:pos:R:3:forces:R:3 virial="1.39811028 -0.49870913 -0.91613515 -0.49870913 1.34833825 -0.3331466 -0.91613515 -0.3331466 1.39085123" main=-1 energy=-43.33086386 pbc="T T T"
Si       4.08295745       4.06902860       1.36717164      -0.21538722      -0.25816240      -0.34220238
Si       5.43072099       2.73248573       2.73230386       0.32136873      -0.06349941      -0.11063024
Si       4.08145379       1.37895753       4.07002823       0.06453875      -0.68897348      -0.10611964
Si       5.41783259       5.42741171       0.01244294       0.34870116       0.49395192       0.06198098
Si       1.34883611       4.06820328       4.11013312      -0.00870998       0.17614878      -0.20503264
Si       2.71744865       2.68383259       5.40785858       0.07206227       0.43193829       0.50587546
Si       1.38003615       1.38360400       1.37477247      -0.28260216      -0.55620426      -0.00341103
Si       2.73497742       5.40044900       2.71849678      -0.29997154       0.46480056       0.19953949
8
Lattice="5.55257642 0.0 0.0 0.0 5.55257642 0.0 0.0 0.0 5.55257642" Properties=species:S:1:pos:R:3:forces:R:3 virial="-3.75206309 0.55526074 0.60386201 0.55526074 -3.74040304 0.03812807 0.60386201 0.03812807 -3.67969406" main=-1 energy=-43.19681733 pbc="T T T"
Si       4.20959492       4.16428178       1.37565503      -0.39787065       0.10000388       0.37964397
Si       0.01572778       2.77780429       2.78095882      -0.23467333       0.04970144       0.24617414
Si       4.15950257       1.36382354       4.14583857      -0.01204170       0.52335933       0.36436314
Si       5.52802765       0.02752251       0.02030083       0.41336594      -0.36507719      -0.52234428
Si       1.41350439       4.10969030       4.19832902      -0.10492377       0.80304637      -0.11553979
Si       2.77048932       2.77509402       0.05243181       0.31711883      -0.27137415      -0.35492517
Si       1.33820790       1.41531830       1.38789218       0.58094315      -0.39735141       0.27185934
Si       2.80683138       0.01128206       2.78331716      -0.56191846      -0.44230826      -0.26923134
8
Lattice="5.55257642 0.0 0.0 0.0 5.55257642 0.0 0.0 0.0 5.55257642" Properties=species:S:1:pos:R:3:forces:R:3 virial="-3.86254197 0.50421908 -0.04719882 0.50421908 -3.63909316 -1.07643512 -0.04719882 -1.07643512 -3.72705345" main=-1 energy=-43.20261677 pbc="T T T"
Si       4.19688818       4.15935226       1.39084194      -0.24251001      -0.24128022      -0.06708591
Si       0.01475325       2.76022322       2.79058643       0.40840756       0.17713419      -0.36330421
Si       4.16505170       1.39687287       4.11039087      -0.31313407       0.09243960       0.60786240
Si       5.50697378       0.00372483       5.53507003       0.55805145       0.02070014      -0.20090977
Si       1.43273546       4.15823336       4.16777907      -0.65255981       0.44940515      -0.24291067
Si       2.72425057       2.79561678       0.00024703       1.04161489      -0.14598037      -0.12601074
Si       1.41147375       1.39400668       1.33522222      -0.50993802      -0.37490462       0.51280114
Si       2.81500810       5.54767699       2.75008632      -0.28993199       0.02248613      -0.12044223
8
Lattice="5.44370237 0.0 0.0 0.0 5.44370237 0.0 0.0 0.0 5.44370237" Properties=species:S:1:pos:R:3:forces:R:3 virial="1.16041952 -0.0 -0.0 -0.0 1.16041952 -0.0 -0.0 -0.0 1.16041952" main=-1 energy=-43.39058405 pbc="T T T"
Si       4.08277678       4.08277678       1.36092559      -0.00000000      -0.00000000      -0.00000000
Si       0.00000000       2.72185118       2.72185118       0.00000000      -0.00000000       0.00000000
Si       4.08277678       1.36092559       4.08277678      -0.00000000       0.00000000      -0.00000000
Si       0.00000000       0.00000000       0.00000000       0.00000000      -0.00000000       0.00000000
Si       1.36092559       4.08277678       4.08277678      -0.00000000       0.00000000      -0.00000000
Si       2.72185118       2.72185118       0.00000000       0.00000000      -0.00000000       0.00000000
Si       1.36092559       1.36092559       1.36092559      -0.00000000       0.00000000      -0.00000000
Si       2.72185118       0.00000000       2.72185118       0.00000000      -0.00000000       0.00000000
8
Lattice="5.44370237 0.0 0.0 0.0 5.44370237 0.0 0.0 0.0 5.44370237" Properties=species:S:1:pos:R:3:forces:R:3 virial="1.40316425 0.43630986 0.038607 0.43630986 1.40293192 0.14909455 0.038607 0.14909455 1.38168455" main=-1 energy=-43.36718985 pbc="T T T"
Si       4.06420455       4.07185644       1.34434897       0.12809777       0.28858347       0.13250711
Si       5.44189250       2.72676059       2.69699301      -0.13464367       0.02781086       0.19337180
Si       4.08521180       1.38378909       4.08728003      -0.00871796      -0.18610019      -0.03690054
Si       0.00528213       0.01015289       0.00735738      -0.15758262      -0.25319719      -0.31449629
Si       1.36617702       4.07691903       4.05777157      -0.20925333      -0.03717897       0.38032367
Si       2.71306957       2.71922950       0.01310925      -0.15740662      -0.06640298      -0.25010011
Si       1.34455622       1.35279292       1.36619809       0.26756790      -0.03350586       0.07834952
Si       2.71311638       5.43268459       2.73540236       0.27193852       0.25999087      -0.18305516
8
Lattice="5.44370237 0.0 0.0 0.0 5.44370237 0.0 0.0 0.0 5.44370237" Properties=species:S:1:pos:R:3:forces:R:3 virial="1.33498908 0.80837697 -0.10101635 0.80837697 1.38495179 -1.02489864 -0.10101635 -1.02489864 1.34962239" main=-1 energy=-43.31525351 pbc="T T T"
Si       4.08137622       4.07449506       1.33293217      -0.40243334      -0.16857563       0.49869228
Si       5.43567329       2.69186428       2.72991668      -0.05982300       0.34095124      -0.42022883
Si       4.11915187       1.36237547       4.09712681      -0.64516997      -0.37798000       0.11400743
Si       5.44308903       0.00091911       0.05022436       0.28295184      -0.20028876      -0.67377562
Si       1.34863529       4.05300403       4.05262727      -0.19688526       0.35536298       0.48841756
Si       2.68925555       2.70266464       5.43630334       0.45280202       0.16011371      -0.15480884
Si       1.37185431       1.35650901       1.37196771      -0.20126124       0.03648491       0.05088842
Si       2.68845777       5.44315887       2.72448158       0.76981895      -0.14606845       0.09680760
8
Lattice="5.55257642 0.0 0.0 0.0 5.55257642 0.0 0.0 0.0 5.55257642" Properties=species:S:1:pos:R:3:forces:R:3 virial="-3.75334255 0.45350934 0.6163836 0.45350934 -3.71646392 -1.18833092 0.6163836 -1.18833092 -3.75449403" main=-1 energy=-43.19645056 pbc="T T T"
Si       4.17233108       4.15658408       1.32533741      -0.12102613       0.25460566       0.74055774
Si       5.53214333       2.78137609       2.77922847       0.53399523       0.05289480      -0.37017129
Si       4.20366721       1.39461602       4.13438849      -0.62778421      -0.08937470       0.38070767
Si       5.55197869       5.54997032       0.00237800       0.41785014       0.11774830      -0.24115386
Si       1.41835789       4.13870112       4.17665004      -0.54269220       0.35909075      -0.21625130
Si       2.76757577       2.80801535       0.01193837       0.32449829      -0.80693107      -0.28081962
Si       1.42990875       1.36447930       1.40673552      -0.65752128       0.43283574      -0.18862000
Si       2.75844251       5.55163309       2.76589523       0.67268016      -0.32086949       0.17575065
8
Lattice="5.44370237 0.0 0.0 0.0 5.44370237 0.0 0.0 0.0 5.44370237" Properties=species:S:1:pos:R:3:forces:R:3 virial="1.68824183 0.72033115 -2.06882679 0.72033115 1.54285105 -0.18963734 -2.06882679 -0.18963734 1.7490717" main=-1 energy=-43.15583603 pbc="T T T"
Si       4.06997896       4.08311859       1.32341990       0.12293775      -0.62512959       0.80909314
Si       0.06404189       2.64926290       2.72859778      -0.38647996       1.55286999      -0.39785256
Si       4.17345895       1.35846297       4.03804985      -1.13178344      -0.29610616       0.76063266
Si       5.43969434       5.39443469       5.43407475      -0.03910731       0.87725597       0.35525032
Si       1.34920225       4.10977890       4.11459157       0.35701363      -0.67732642      -0.56713218
Si       2.69633976       2.71709894       5.44358827       0.72975111      -0.06438331      -0.56214954
Si       1.36068770       1.38992926       1.33997474       0.37478748      -1.17852337       0.03206853
Si       2.73909226       5.42549890       2.74593598      -0.02711927       0.41134289      -0.42991035
8
Lattice="5.55257642 0.0 0.0 0.0 5.55257642 0.0 0.0 0.0 5.55257642" Properties=species:S:1:pos:R:3:forces:R:3 virial="-3.34330011 1.70398146 0.84301659 1.70398146 -3.24309612 1.36467701 0.84301659 1.36467701 -3.45419555" main=-1 energy=-42.92928261 pbc="T T T"
Si       4.23926544       4.11928992       1.27292243      -0.25322477       0.89593615       1.47043038
Si       0.05905992       2.77490567       2.74111286      -1.37380668      -0.55750664      -0.24751934
Si       4.09077339       1.41074898       4.17151302       1.00039475      -0.02240773      -0.04910599
Si       0.00976765       0.04382454       0.02338290       0.09688499      -0.06617961      -0.99834924
Si       1.33565910       4.11648143       4.06562561       0.75625113       1.24176621       1.19818321
Si       2.80428619       2.84161055       5.53841785      -0.73521971      -0.26232711      -0.59595243
Si       1.40243638       1.46407331       1.34862314       0.57102564      -0.71168084       0.27474378
Si       2.77797975       0.02375276       2.80278472      -0.06230535      -0.51760042      -1.05243038
8
Lattice="5.44370237 0.0 0.0 0.0 5.44370237 0.0 0.0 0.0 5.44370237" Properties=species:S:1:pos:R:3:forces:R:3 virial="1.38688381 0.35396082 0.07915038 0.35396082 1.38628427 0.23178611 0.07915038 0.23178611 1.3324372" main=-1 energy=-43.37523029 pbc="T T T"
Si       4.09446359       4.09245753       1.36312087      -0.03165018      -0.25976912       0.16118039
Si       0.01502881       2.71421982       2.72655101      -0.19378969      -0.00390342      -0.00813859
Si       4.08092657       1.34229719       4.08353209       0.20557663       0.16574944       0.12353984
Si       0.01146885       5.43410931       0.02382246      -0.07144316       0.04789208      -0.42719705
Si       1.37396337       4.08456503       4.07737641      -0.10906872      -0.05646039       0.15575990
Si       2.73597944       2.73227544       5.44215810      -0.08654734      -0.20318599       0.05665581
Si       1.35745855       1.34719832       1.35993495       0.28214748       0.29144108       0.02976563
Si       2.72617577       5.43946303       2.72449693       0.00477498       0.01823632      -0.09156594
8
Lattice="5.55257642 0.0 0.0 0.0 5.55257642 0.0 0.0 0.0 5.55257642" Properties=species:S:1:pos:R:3:forces:R:3 virial="-3.61099862 -0.92190864 0.61141581 -0.92190864 -3.61336872 -0.50940337 0.61141581 -0.50940337 -3.76989315" main=-1 energy=-43.12549963 pbc="T T T"